ITEM: TIMESTEP
0
ITEM: NUMBER OF ATOMS
108
ITEM: BOX BOUNDS pp pp pp
0.0000000000000000e+00 1.7350000000000001e+01
0.0000000000000000e+00 1.7350000000000001e+01
0.0000000000000000e+00 1.7350000000000001e+01
ITEM: ATOMS id type x y z
12 1 4.18419 3.6234 6.70353
14 1 5.3812 6.06527 4.29673
16 1 0.207988 1.16942 4.79329
20 1 2.15965 7.2996 1.35138
19 1 3.76538 7.7495 7.379
6 1 5.30613 1.71499 3.86692
23 1 2.33215 3.62261 2.78608
26 1 5.19818 3.25566 0.75469
24 1 1.23787 5.72622 5.58932
82 1 3.68782 0.105952 7.13162
1 1 7.7478 1.57657 7.23516
2 1 7.81918 5.15684 7.03078
3 1 8.81168 6.99691 3.74555
11 1 10.9502 7.62571 7.16088
15 1 8.42612 3.48643 3.81874
63 1 8.96492 0.869664 0.778493
9 1 11.2323 3.98879 5.79204
44 1 7.89092 6.33847 0.196589
33 1 7.35839 8.33787 8.45284
18 1 12.5888 2.92664 2.3769
79 1 11.6017 7.88754 1.19564
7 1 15.5027 3.94711 4.34838
21 1 13.3325 6.43253 3.96304
13 1 15.18 5.68645 1.17209
10 1 16.4037 1.8839 1.12268
53 1 14.6792 0.379895 5.95627
30 1 16.7995 3.27885 7.80298
27 1 5.35089 2.21567 13.6172
36 1 1.49803 6.50435 12.0595
45 1 4.45617 5.78703 14.3225
50 1 2.06983 1.44345 10.3831
48 1 4.50476 5.26356 9.86487
38 1 2.05868 3.43643 16.3301
100 1 3.41707 0.286429 16.9466
41 1 0.242035 6.62307 8.75959
5 1 5.90626 1.58454 10.0926
28 1 10.5297 1.40931 14.2195
32 1 10.4499 2.98903 9.60703
34 1 8.21028 4.03871 14.4041
39 1 7.61354 6.35239 11.8535
42 1 11.2531 5.73689 11.7567
91 1 9.58408 8.2856 14.7151
31 1 11.1615 5.08211 16.5168
37 1 16.704 6.83781 15.7372
46 1 14.6753 6.807 12.2962
22 1 13.3108 0.127529 9.30837
43 1 17.233 2.65716 13.3155
51 1 14.1258 3.42651 15.5421
52 1 13.9237 2.86785 11.6626
49 1 13.2817 7.91624 15.251
8 1 13.8826 5.3446 8.83118
29 1 16.5549 0.000138828 15.0743
55 1 2.67353 12.6282 3.26013
57 1 4.67433 9.78545 1.62513
65 1 2.84761 9.01487 4.39373
75 1 2.98236 14.1664 7.1999
81 1 2.71659 16.1989 3.23314
74 1 0.235436 16.7754 8.08762
67 1 5.17392 14.5114 0.584001
54 1 5.37071 11.3065 7.69426
84 1 1.9294 11.8652 0.0566906
71 1 11.2384 16.9511 3.62377
58 1 6.21818 13.1838 3.79921
60 1 7.0552 9.70464 4.87142
68 1 9.06413 11.764 8.40146
70 1 8.92837 10.263 1.60455
76 1 7.64819 15.2134 7.43462
80 1 9.51186 13.1889 4.54925
62 1 8.73503 14.5061 1.07432
17 1 7.8797 16.7429 3.89091
72 1 11.0447 16.8799 7.08186
61 1 17.1159 14.7602 0.694581
56 1 17.2591 11.1182 5.59453
73 1 15.1212 11.8112 1.78957
59 1 12.2373 10.4563 3.79456
77 1 12.162 14.1605 1.32163
69 1 16.5252 14.4707 4.3737
66 1 13.2025 13.4748 6.20082
64 1 16.4666 8.75426 3.10839
4 1 14.4326 8.98499 6.31305
25 1 14.5484 16.5637 2.47564
90 1 3.95835 13.2055 14.6603
95 1 1.13875 14.1511 10.3004
103 1 4.39967 9.18637 10.9597
105 1 4.52237 15.3705 10.7115
85 1 0.939474 10.2929 13.4502
35 1 2.55166 16.7638 13.6279
47 1 4.55027 9.34703 14.4545
94 1 0.371739 13.7939 14.6819
86 1 1.6411 11.1461 8.72146
83 1 7.06093 16.3262 14.814
97 1 8.13649 10.3751 11.7199
98 1 7.68912 11.5021 15.1114
102 1 10.1958 14.9628 15.1511
104 1 8.06063 13.9574 11.9229
106 1 11.2378 14.3487 9.67244
40 1 9.53052 17.3278 11.2118
107 1 11.1667 12.1655 13.1985
92 1 11.4 11.5314 16.7544
93 1 14.7784 11.2254 13.249
89 1 14.8122 14.1968 9.37849
78 1 12.9438 16.9641 16.4458
96 1 16.3939 16.7736 11.5639
108 1 16.0009 10.0735 16.3463
88 1 16.457 9.69142 10.5424
87 1 12.2479 9.72473 10.1829
99 1 14.5379 13.8823 15.7443
101 1 12.9666 16.464 13.0339